% Model:              g01-compact.mph
% Version:            COMSOL 5.4.0.388
% Date:               Aug 16 2019, 21:21
% Dimension:          3
% Nodes:              6154
% Expressions:        1
% Description:        Surface
% x                       y                        z                        Color
-0.33156086638991616      -0.3742548348694048      -0.49999999999999994     0.398748455964121
-0.3427137152479201       -0.3640704730968546      -0.4731119345409911      0.4423995901415238
-0.35355339059327384      -0.35355339059327373     -0.4462238690819822      0.4747450921714988
-0.35355339059327384      -0.35355339059327373     -0.5                     0.42537803375259575
-0.3640704730968547       -0.34271371524792        -0.4731119345409911      0.4698245000167414
-0.3742548348694049       -0.3315608663899161      -0.49999999999999994     0.450350500987682
-0.3083594449928172       -0.3935917335053186      -0.44622386217677673     0.41443811228978084
-0.3315613332464908       -0.37425537043015095     -0.44622386562937943     0.4452614878912262
-0.320106428770731        -0.3840987819033652      -0.47311193108838834     0.41335481470392765
-0.28403226031069495      -0.41149175007289834     -0.5                     0.34207938281097966
-0.2963311044882875       -0.40272555979568975     -0.47311193108838834     0.3828317434588997
-0.3083591780835976       -0.3935914351896112      -0.5                     0.3710804891766489
-0.2323615524553012       -0.44272795832949696     -0.5                     0.28019766002736024
-0.24562730503128338      -0.4355080102857683      -0.47311192883451164     0.31715428283274616
-0.25866890984710894      -0.427890634483285       -0.4462238576690233      0.3477895390956789
-0.25866849831877514      -0.42788996789361017     -0.49999999999999994     0.31179785123433407
-0.2714744970063943       -0.41988283779540836     -0.47311192883451164     0.3503500660842382
-0.2840323792284825       -0.4114919288999573      -0.44622385992290003     0.3816904640284974
-0.17730222522314681      -0.4675075887873605      -0.49999999999999994     0.21376252445641772
-0.19134170458961244      -0.46193977105759304     -0.47311192949644754     0.24733127187509554
-0.20520639376183641      -0.4559499270306578      -0.4462238589928952      0.2756727860768642
-0.2052061805129632       -0.4559493920624662      -0.5                     0.24748222674131784
-0.21888384618732767      -0.44954405999661734     -0.4731119294964476      0.28330010637177006
-0.23236158309655552      -0.44272801436193593     -0.44622385833095923     0.312413107075156
-0.4547762912214774       -0.20779442952793023     -0.449834928927446       0.605246637194038
-0.4613941670971421       -0.19265363367643634     -0.47491746446372296     0.5918420085528968
-0.4675075887873606       -0.17730222522314676     -0.5                     0.5594342060109672
-0.4489202391401443       -0.22016043897656926     -0.47491746446372296     0.5746441550605331
-0.4559493920624662       -0.205206180512963       -0.5                     0.5465565200960052
-0.4427279583294971       -0.23236155245530102     -0.5                     0.531877599879625
-0.4712712959211865       -0.16704300536318625     -0.47449305435686406     0.6037925881782259
-0.4748093534531716       -0.15670379023297792     -0.4489861087137281      0.6315146464664569
-0.47736037098383977      -0.14875151212748547     -0.5                     0.5712711892836752
-0.4804972899860346       -0.13828360103814405     -0.47449305435686406     0.615778380812574
-0.4854701471398128       -0.11965764865871896     -0.5                     0.5816232526966252
-0.46549428680939514      -0.18252415990167592     -0.449410518820587       0.6193844242071418
-0.3840987819033653       -0.32010642877073087     -0.4731119310883882      0.49626854777865903
-0.3935917335053187       -0.3083594449928171      -0.44622386217677656     0.5270295649274611
-0.3935914351896113       -0.3083591780835974      -0.5                     0.47254787833815737
-0.4027255597956901       -0.296331104488287       -0.4731119310883883      0.5207102439272643
-0.41149175007289845      -0.28403226031069473     -0.5                     0.4937899324071624
-0.374255370430151        -0.3315613332464907      -0.4462238656293794      0.5021270441262641
-0.36407047294226763      -0.3427137154121404      -0.41933580017037064     0.5007765727467188
-0.374255366354344        -0.33156133784712566     -0.3924477312587591      0.5247219063366969
-0.38409878175897594      -0.32010642894398506     -0.41933579671776783     0.5278132930162791
-0.4198828377954086       -0.271474497006394       -0.47311192883451164     0.5404136033331448
-0.42789063448328524      -0.2586689098471086      -0.4462238576690233      0.573285778860393
-0.4278899678936102       -0.258668498318775       -0.5                     0.5136785662758584
-0.43550801028576847      -0.24562730503128305     -0.47311192883451164     0.5599652041772862
-0.4420659211251314       -0.23361875220065093     -0.44802939329823466     0.5901597000167602
-0.4114919288999576       -0.284032379228482       -0.4462238599228999      0.5511596444662704
-0.32010642894398517      -0.3840987817589759      -0.41933579671776794     0.4408234452461231
-0.33156133784712577      -0.37425536635434387     -0.39244773125875915     0.46541853404996086
-0.3427137154121405       -0.3640704729422675      -0.41933580017037064     0.4717135834353491
-0.35355339059327384      -0.35355339059327373     -0.3924477312587591      0.4959986193630056
-0.4199393266415423       -0.2713871071732186      -0.41862119715206536     0.5767787659398323
-0.40278722204845807      -0.2962472848052554      -0.418621199405942       0.5534278654346312
-0.4116101139893969       -0.283861082330135       -0.3910185366351074      0.5766781249913037
-0.3936558990959886       -0.3082775261139366      -0.3917331339469332      0.5517903548986798
-0.3934993368482429       -0.3084773442248119      -0.3404131430918186      0.5666673655020692
-0.40274284232551955      -0.2963076154194517      -0.365715839863463       0.572742529487634
-0.38405082835845034      -0.32016395992864055     -0.36643043717528884     0.5464194726043935
-0.2836916365693347       -0.4117269184066212      -0.3950368612585498      0.3978394707176804
-0.2961643834555053       -0.40284818228759633     -0.42063036171766327     0.40754590263301205
-0.27130067638440836      -0.4199951702024233      -0.4206303594637866      0.3734590045012943
-0.30819650376890556      -0.3937193353959429      -0.3937422962586545      0.43243354293030034
-0.4883204295707146       -0.10743909001789223     -0.47132303282885035     0.6286348934300212
-0.49086247062448896      -0.09515269272292148     -0.4426460656577007      0.65712233168813
-0.4918097442203015       -0.09012746953743143     -0.49999999999999994     0.588828287621196
-0.49391652538953174      -0.07775902485970403     -0.47132303282885035     0.6351767631685373
-0.49635403870354167      -0.06026830697549758     -0.49999999999999994     0.593643778827527
-0.49848366387649684      -0.03891062641828967     -0.4543664903233414      0.6581868746934871
-0.4975336661990643       -0.049600917315288096    -0.47718324516167065     0.6328974656776852
-0.49547173074612877      -0.0671398840588489      -0.44850627799052106     0.6585069694188591
-0.48381572148447405      -0.12618378518834272     -0.4458160871857144      0.645335080592119
-0.49962077215536604      -0.019470080402396617    -0.4771832451616707      0.6355965727675812
-0.5                      6.123233995736766E-17    -0.5                     0.599744657263765
-0.49908706862840435      -0.030189194627611087    -0.5                     0.597399181513453
-0.14960559365771617      -0.4770934566165442      -0.44836738618085165     0.20071744142781148
-0.16352425965928363      -0.4725037740620525      -0.4741836930904258      0.21090173709196716
-0.13469685993644195      -0.48151506302841923     -0.4741836930904258      0.17385648564261658
-0.1487515121274856       -0.4773603709838396      -0.49999999999999994     0.1791541973388667
-0.11965764865871913      -0.48547014713981274     -0.49999999999999994     0.1441895912725678
-0.1777207045197337       -0.46734928178505797     -0.4472956225868734      0.23854884906357232
-0.0915450809964305       -0.491548062904694       -0.4565739464685913      0.1215175620190496
-0.10564516555044157      -0.4887116726617237      -0.4782869732342956      0.1352234305332633
-0.07594475064331435      -0.4941987402348622      -0.47828697323429564     0.09740851739218961
-0.09012746953743155      -0.49180974422030144     -0.5                     0.10842173839640483
-0.0602683069754977       -0.49635403870354167     -0.5                     0.07245198721795128
-0.12079174591947034      -0.4851900185677011      -0.45247066632472144     0.16119141149909894
-0.04247092963912478      -0.4981929547229552      -0.4611606134415756      0.05601902336588237
-0.06709032287510952      -0.4954784441088366      -0.4588672799550835      0.08878539776379596
-0.05137786679891688      -0.4973533098343599      -0.4805803067207878      0.0652100719635766
-0.21791001207755784      -0.4500169181668158      -0.41882635019662345     0.30038002404465763
-0.23044228120259555      -0.443730047477229       -0.3914288414003517      0.3239933414561624
-0.24468379810178156      -0.43603880440447795     -0.4188263495346875      0.3373265549630693
-0.2575644995306146       -0.42855633069824556     -0.39323285132945074     0.3616832560824894
-0.25732904342173163      -0.4286977529818142      -0.3426986683880985      0.3713624550848818
-0.2706433933260587       -0.42041902151182015     -0.3688677648233242      0.3855324709717757
-0.24400145235406248      -0.43642100230065484     -0.3670637548942251      0.3479678780192166
-0.19196090591762258      -0.46168280301445674     -0.4203356838350166      0.26428586744098326
-0.16415765030961663      -0.47228409442286495     -0.42140744742899483     0.22586737371731846
-0.1785554694778441       -0.46703098860733716     -0.394447508677138       0.2506138711479991
-0.20483047497821694      -0.4561189280442087      -0.39293817503874484     0.28772418664598226
-0.12027417785900389      -0.4853185779880477      -0.4041899048539024      0.16759947879716955
-0.13500254043488683      -0.4814294487005617      -0.42627864551737704     0.18492262237406637
-0.10595542093776071      -0.4886445014260387      -0.43038192566124683     0.14456569028153127
-0.1496943503048983       -0.47706561549413135     -0.39931870676552017     0.20935877051377855
-0.4344396786869009       -0.24751195038305177     -0.4214428324217021      0.5948739465855909
-0.44069787816876255      -0.23618928887134258     -0.39666180717438093     0.6141654374553762
-0.4479621234218002       -0.22210343531659266     -0.4232483680509135      0.6118264666169403
-0.426820077253944        -0.2604316064784328      -0.3938401719047442      0.5964007202147104
-0.4802723386840725       -0.13906286598129483     -0.4045106515375135      0.6637749807327482
-0.4860635043814636       -0.11722742728734979     -0.42357835859760706     0.6617657841713401
-0.4776222987006038       -0.14790855209875858     -0.4267483801256208      0.6489326467801921
-0.4703161602611425       -0.1697136099351355      -0.4242613938440659      0.6407795570693547
-0.46029391375117773      -0.19526779807132397     -0.42468580395092487     0.6272951280445269
-0.4654665724059724       -0.18259482460528745     -0.39953667897440376     0.6462935952997797
-0.47337012985913696      -0.1609991309204612      -0.4020236652559586      0.6557255170888568
-0.453873985288146        -0.2097579688084718      -0.3980992430743924      0.6313411039354155
-0.4555823361295027       -0.20602120038186555     -0.3577092635113309      0.6483627487651287
-0.4606733894519021       -0.194370852369629       -0.37862297124286737     0.648187257145602
-0.44839389383265843      -0.2212304589643719      -0.3771855353428559      0.6319725558972453
-0.4363586230270107       -0.24411299045722903     -0.3663253768814876      0.6191749642671049
-0.4220450922895714       -0.26810061557983633     -0.3635037416118508      0.6002840967355358
-0.431876915676938        -0.2519569997149811      -0.3359889465885942      0.6218055028692991
-0.44432364929103757      -0.22929564906621114     -0.3468491050499626      0.6361086049558957
-0.4136545985408662       -0.28087341117662734     -0.3382010448402064      0.595629374604202
-0.3198707289253223       -0.3842950907529043      -0.36666007340336576     0.4559157297538299
-0.2959171854205287       -0.4030297996089029      -0.3679546384032611      0.4216530997053548
-0.3078762857978767       -0.39396978645995706     -0.3408724155479724      0.444430308940653
-0.2831356105459844       -0.4121094830754961      -0.34178554196803546     0.4086744631338848
-0.2833951649095942       -0.4119310385317716      -0.289887107107821       0.41713896207718953
-0.2957720976519356       -0.40313628743958774     -0.3153797613278967      0.4314778807161093
-0.27049204802959953      -0.42051641103856197     -0.3162928877479597      0.39457587063849453
-0.24060485375190446      -0.4383027542133687      -0.2916605861540084      0.3540610902446345
-0.2623316064379406       -0.4256549403727031      -0.2907738466309147      0.38609319301707157
-0.2490132637045582       -0.43358089729507704     -0.3171796272710534      0.3631612755776102
-0.34271371541214035      -0.3640704729422677      -0.3655596659364727      0.488513839469382
-0.3535533905932737       -0.35355339059327384     -0.3386716006141862      0.510323674509629
-0.36407047294226763      -0.3427137154121404      -0.36555966593647266     0.5186237605712964
-0.3742057012974349       -0.33161738964730864     -0.3395423718530024      0.5395264775301709
-0.3313316698814626       -0.3744587087164104      -0.3397720080810793      0.4782818423029258
-0.3293386230283158       -0.37621280066182344     -0.2882162708572292      0.4846523239210078
-0.34163392364225326      -0.36508391119960226     -0.3134439357357077      0.49829078304819274
-0.3187311369222529       -0.3852407849076316      -0.3145443432026008      0.4649414065984044
-0.30688698546748183      -0.3947409000226371      -0.2890516889825251      0.45167324233371997
-0.2944333863721091       -0.40411505909759454     -0.26075011439347895     0.43700378698706954
-0.3052561628376464       -0.3960033775735206      -0.2316131216791369      0.4561936950499392
-0.3174516534776455       -0.3862958033739286      -0.25991469626818303     0.47107510489675414
-0.3626303452808403       -0.3442371750428744      -0.31408133267631266     0.5284298454198961
-0.37146189644065214      -0.3346880032100258      -0.28949106473843916     0.5456755224835604
-0.38270507152352534      -0.3217713912549923      -0.31495210391512884     0.5570516288474364
-0.35101484188399645      -0.3560738417479624      -0.28885366779783417     0.5160908014609027
-0.3404250670041711       -0.3662113785168418      -0.2618560483429483      0.5046357801352002
-0.3512079366746766       -0.3558833871041417      -0.23549582582866735     0.5238045049104055
-0.36149029447322517      -0.3454341717341539      -0.26249344528355323     0.5353881079511714
-0.3288444645967863       -0.37664481690852053     -0.23355447375390215     0.4909599105736474
-0.4065364672284302       -0.2910809179823155      -0.28626266172449805     0.5967869456972318
-0.41966286517138146      -0.27181442124388266     -0.3111258041565461      0.610512958237969
-0.4001124602691784       -0.29984999439277155     -0.3133379024081583      0.5822617076017
-0.38960975082569055      -0.31337556072792805     -0.2878768632314686      0.5721832659014967
-0.43618648094863033      -0.24442044480290545     -0.2728403150098249      0.6415882613835276
-0.4340480561588375       -0.2481980760294782      -0.30441463079920955     0.632347106895892
-0.42200686224917106      -0.2681607879884924      -0.2795514883671615      0.620139088809619
-0.4856386562499884       -0.11897518882399635     -0.39056904344092036     0.6769869056523398
-0.4901651838731888       -0.09868177399379804     -0.3766274353443272      0.688566625821673
-0.49051700105700496      -0.09691786044915647     -0.40963675050101395     0.6748266999876809
-0.49828166106120864      -0.04141722166059429     -0.4297260337865384      0.6741134369814541
-0.49512778902440124      -0.06963097396854376     -0.42386582145371804     0.6734432846162363
-0.49806705406212604      -0.04392276924187733     -0.4050855772497354      0.6868852216152708
-0.4948741013369112       -0.07141165049195117     -0.3908565062970313      0.6891296492688825
-0.49962077215536604      -0.019470080402396617    -0.44593324516167077     0.6656057168474492
-0.5                      6.123233995736765E-17    -0.43750000000000006     0.6716339527797444
-0.5                      6.123233995736765E-17    -0.46875                 0.644763397189423
-0.49951652977207023      -0.021982640525389365    -0.42129278862486774     0.680465757233714
-0.02125467758544471      -0.4995480344078423      -0.4805803067207878      0.02726133686767273
-0.03018919462761122      -0.4990870686284043      -0.49999999999999994     0.036350247159594784
-9.184850993605148E-17    -0.5                     -0.5                     3.870481440257554E-6
-0.02125467758544471      -0.4995480344078423      -0.44933030672078783     0.028408987510506502
-9.184850993605148E-17    -0.5                     -0.46875                 3.557323384090793E-5
-9.18485099360515E-17     -0.5                     -0.43750000000000006     1.003501867470682E-5
-0.049145174224890835     -0.49757889007714656     -0.4336383451986527      0.06682616097148278
-0.027948992605524067     -0.49921824266780995     -0.4218080384778649      0.038435533534346006
-0.055810587891461705     -0.4968754152493454      -0.40611607695572977     0.07764022044183062
-0.07372596868879047      -0.4945346110646852      -0.43134501171216055     0.10050694250259255
-0.0882318043803938       -0.4921535824270508      -0.40515299090481605     0.1228478301131955
-0.09654403949280352      -0.49059071377107416     -0.36017925760663216     0.1381197706587718
-0.1084411531561361       -0.4880988796362551      -0.3821845812302673      0.15327670110446315
-0.07624209788245132      -0.49415295457022484     -0.383147667281181       0.1077034265300233
-0.18874284883292736      -0.463007707294847       -0.3612869504187328      0.2699950508091516
-0.198839654654262        -0.45876223878712363     -0.32812639216032763     0.2887488526591872
-0.2147725233989374       -0.4515227161426686      -0.3597776167803397      0.30746709977143805
-0.2285791735980583       -0.44469265948206155     -0.335412530274213       0.33094340055854166
-0.2199602614549736       -0.4490183552825649      -0.309893489157168       0.3216790556895577
-0.14369654603722365      -0.47890636105294326     -0.3499518858796588      0.2066436647785328
-0.16123537606109045      -0.47328971413547405     -0.3721996972783984      0.2292846165286262
-0.13202429662785697      -0.4822546890388103      -0.3770708953667806      0.18720078912091828
-0.17156400733109664      -0.46964432434396075     -0.3390391390199932      0.2479745296196636
-0.12026227903446304      -0.48532152666189965     -0.35506557174314546     0.1724982012250371
-0.24639015565236716      -0.43507687964037145     -0.26886961091099104     0.3650482658264555
-0.25213221510989314      -0.43177464736107257     -0.24607863566797372     0.3757590432907072
-0.267947449867463        -0.42214235052825894     -0.26798287138789734     0.39702425591207174
-0.2792675185253394       -0.4147404647447597      -0.23884587867355533     0.4168064688995551
-0.2224947714296195       -0.44776788259820666     -0.2783076540708487      0.32875888535641973
-0.20401306611439501      -0.4564851244614697      -0.26495472198768893     0.3025894006858447
-0.22840705180757548      -0.4447810907452918      -0.25551667882783136     0.3396203440126523
-0.20142957819071758      -0.45763099220868947     -0.2965405570740083      0.29592903092657635
-0.26678199223428417      -0.42287985128107763     -0.19898965743832853     0.4014564492623645
-0.28633459260847766      -0.40989328010561127     -0.21530138955873268     0.4294829631147242
-0.25949521767314915      -0.42739002328641806     -0.22253414655315112     0.38875300943298496
-0.2806613103663804       -0.4137985365651095      -0.18750896183335708     0.42311427910366184
-0.29423178233870634      -0.4042618684241542      -0.1760282662283857      0.4442971348230415
-0.29977241329169035      -0.4001705889108743      -0.2038206939537613      0.45053255798647446
-0.4779843047376581       -0.14673446910817375     -0.37441669461610777     0.6731061375775645
-0.47073176879095835      -0.16855741410847438     -0.3719297083345529      0.6642163637303177
-0.47557373742330133      -0.1543684562118596      -0.34432273769470206     0.6798611234175435
-0.4662938020429199       -0.18047185424979212     -0.3510160006030165      0.6650885983195653
-0.48367154937089374      -0.12673528446789825     -0.36047508651951465     0.6856617777651808
-0.4165340640122999       -0.2765852011901527      -0.2425459935959352      0.6183077512760853
-0.4266634796159371       -0.2606880802070184      -0.2576931543028801      0.6305490313828055
-0.41159908442628257      -0.2838770749804322      -0.2644043276602166      0.6078343796162012
-0.4885269131872815       -0.10649626797079023     -0.31397636595872336     0.7059133354224828
-0.48936164724177594      -0.10259229117636307     -0.3453019006515253      0.6982768943069207
-0.48264422997554246      -0.1305930598129765      -0.3291495518267127      0.6938481338687978
-0.45651370172999134      -0.20394911162537702     -0.331867798213095       0.6571421482555909
-0.44536087978029587      -0.2272744745045533      -0.3210076397517266      0.6444003919205253
-0.45743564307313195      -0.2018728125485704      -0.306026332914859       0.6648006944626269
-0.4671089722873302       -0.1783513611068728      -0.3251745353047805      0.6735780172290503
-0.44731722567759896      -0.2233994172152112      -0.28943332396234195     0.6541854478697564
-0.4824533930593199       -0.1312963195430449      -0.2974091927748194      0.7015017046980705
-0.4753482581118819       -0.15506138626363325     -0.3125823786428088      0.6881421044287603
-0.47512176917411664      -0.15575398696937875     -0.2808420195909155      0.6948935194437333
-0.4668485496416607       -0.1790319292681555      -0.29343417625288726     0.6807323077660702
-0.45695330093785796      -0.2029622643793555      -0.2767792839112891      0.6702509273431883
-0.45646836411348524      -0.2040505637423202      -0.2475322349077192      0.6746824531102377
-0.46642060840157895      -0.18014387599444207     -0.26418712724931737     0.6858849316125919
-0.4467836164492033       -0.22446469671770483     -0.26018627495877206     0.6588428515799108
-0.43590743543347915      -0.24491775708144803     -0.24562523737582942     0.6456892876041305
-0.43562782291451796      -0.24541475078478348     -0.21841015974183386     0.6490875078629018
-0.4465273235983398       -0.2249741080215755      -0.23297119732477656     0.6627226364549146
-0.4263658870351697       -0.2611745209102774      -0.23047807666888454     0.6341445015883951
-0.3985290846017706       -0.30195126879427875     -0.26271460959901705     0.5892311107448289
-0.3810065846049802       -0.32378076299812514     -0.2643288111059876      0.5635702570151553
-0.3902311221395637       -0.3126014576320733      -0.239166557473536       0.5805791993819415
-0.4037843596261318       -0.29488674253230623     -0.2408562755347356      0.6000593497910989
-0.37135064405295287      -0.3348114382177782      -0.23733119165110167     0.5531722806063957
-0.3624211835519354       -0.34445737865926795     -0.21101059222800722     0.5430455121669839
-0.373262889895802        -0.3326782454965074      -0.18652535862734704     0.561453225538115
-0.38187896767981755      -0.32275138116481683     -0.21284595805044149     0.5715249960543096
-0.4095820663179864       -0.2867795860075968      -0.19444474767183578     0.6141029849808922
-0.4215456334815735       -0.26888525227802834     -0.17484726861345745     0.6334703864501384
-0.43272793474649446      -0.25049258370265903     -0.15524978955507912     0.6514770564435128
-0.42311074391033626      -0.26641564966728554     -0.2064274537068348      0.6324479534541486
-0.43418530210331074      -0.24795790658387323     -0.18682997464845652     0.6506554795487185
-0.4130895139899138       -0.2817038399304788      -0.21849537063388547     0.6164920271350071
-0.40011495394599517      -0.29984666686290534     -0.21680565257268591     0.5977830170228475
-0.39209466727189973      -0.3102608126994742      -0.1904850531495914      0.5888480689241831
-0.3416573986144161       -0.365061942650874       -0.20635741153641396     0.5127539026714847
-0.3187518073632462       -0.38522368216747005     -0.20441605946164876     0.47884273856770787
-0.33186707355793676      -0.3739842850817277      -0.17721899724416063     0.5006652898591596
-0.35316938367675876      -0.35393698087848685     -0.18187217793575383     0.532035138662873
-0.3134152634318179       -0.38957781334152514     -0.17662363173627316     0.47306914221871255
-0.4466265020256778       -0.22477715117045868     -0.20327326147447217     0.666765385409237
-0.4566481741227715       -0.20364784572967864     -0.18813636320711047     0.6828269059225242
-0.4565583135214939       -0.20384922456170704     -0.2178342990574148      0.6791330183513673
-0.4453044723846802       -0.22738497504057215     -0.17169307638109477     0.6682229062681805
-0.4660811177305275       -0.18102041789550188     -0.23288572786059136     0.6905276348532947
-0.47453278377018565      -0.15753931930574738     -0.21823922081346359     0.7045454160104421
-0.47482811556904303      -0.15664692995763288     -0.24954062020218953     0.7002275516103168
-0.4661609090623729       -0.18081484137686848     -0.20318779201028703     0.6946575354060041
-0.49727183415944015      -0.05216054976422547     -0.3456332791560787      0.7088650452409232
-0.497686488523166        -0.04804330485593748     -0.375359428202907       0.6991080485400101
-0.494266145129572        -0.07550481957301047     -0.3611303572502029      0.6997071959368759
-0.4936475312769701       -0.0794488191488887      -0.32980482255740107     0.7086368655984929
-0.49951652977207023      -0.021982640525389365    -0.39004278862486774     0.6956613442819175
-0.5000000000000001       6.123233995736767E-17    -0.37500000000000006     0.7023541099898809
-0.5                      6.123233995736766E-17    -0.40625000000000006     0.6888397474663208
-0.4993174927236778       -0.026115923497742867    -0.3603166395780394      0.7067604486887021
-0.4826386138816191       -0.13061381393416763     -0.26613040000533283     0.708198324879012
-0.48882621150779         -0.1051139141262533      -0.25141878041975024     0.7194297206358903
-0.4886770511425136       -0.10580519687925148     -0.28269757318923683     0.7132850721624786
-0.48239220995244747      -0.1315209328479456      -0.23482900061660694     0.7131442855398457
-0.49347538064767954      -0.08051117124118731     -0.29761318297936173     0.7166052251916282
-0.49704268437659166      -0.05430073579346695     -0.2812500000000001      0.7251011258852323
-0.49715841091340807      -0.05323076608555327     -0.3134416395780394      0.7178131878658702
-0.49358876075245306      -0.07981312710862594     -0.26633439020987515     0.7232985586413702
-9.18485099360515E-17     -0.5000000000000001      -0.37500000000000006     -1.9518862703172377E-5
-0.027948992605524067     -0.49921824266780995     -0.3905580384778649      0.039287279420004206
-9.18485099360515E-17     -0.5                     -0.40625000000000006     2.226857907507917E-6
-0.025811410793711635     -0.4993333266194419      -0.35846216058493274     0.03695567127075115
-0.05155399046545991      -0.4973350842913531      -0.3419243211698655      0.0743819339082084
-0.053682781181184705     -0.4971098057820355      -0.3740201990627976      0.07621976579710024
-0.07412575971150903      -0.4944748444028186      -0.3510517893882488      0.10650965655680697
-0.09867246285104113      -0.49016705833308494     -0.3352567377971659      0.1428188866898722
-0.07627125270042935      -0.49414845543774316     -0.3261292695787825      0.11079548951996224
-0.10079902735035705      -0.4897341687948902      -0.3103342179876996      0.1473340460955506
-0.12236760889489774      -0.4847949755240305      -0.3301430519336792      0.17749798622990912
-0.12757936415809673      -0.4834495897619686      -0.2990046559115147      0.18722747315469795
-0.15397355274168836      -0.47570173959751555     -0.28767509383532974     0.22683815161375528
-0.1488436741229872       -0.47733170926890034     -0.31881348985749425     0.2169173497814928
-0.17660981428046627      -0.46777021442137506     -0.30790074299782866     0.2584372435534364
-0.179251009465287        -0.4667644755180878      -0.27631490791150937     0.26499133223934856
-0.15602285260646306      -0.4750335456202455      -0.2559449752039783      0.23191856729582647
-0.15806925287194332      -0.47435652340460716     -0.2242148565726268      0.23670096826454798
-0.18126154626858204      -0.4659873945122579      -0.24458478928015787     0.27022204053316295
-0.10303748954780712      -0.48926810211548183     -0.2809278664664414      0.15207387033137504
-0.10527379705364856      -0.4887918039962487      -0.2515215149451832      0.15664666959762322
-0.1297888074545228       -0.4828611244027964      -0.26959830439025645     0.19219809986386116
-0.13186919586267315      -0.4822971233405109      -0.237868185758905       0.19684729244464827
-0.0775468084885965       -0.49394988864583517     -0.296103523617422       0.11387424642838939